+ 0.5 0 1 tcp 40 ------- 1 0.0 2.0 0 0
- 0.5 0 1 tcp 40 ------- 1 0.0 2.0 0 0
r 0.510032 0 1 tcp 40 ------- 1 0.0 2.0 0 0
+ 0.510032 1 2 tcp 40 ------- 1 0.0 2.0 0 0
- 0.510032 1 2 tcp 40 ------- 1 0.0 2.0 0 0
r 0.520064 1 2 tcp 40 ------- 1 0.0 2.0 0 0
+ 0.520064 2 1 ack 40 ------- 1 2.0 0.0 0 1
- 0.520064 2 1 ack 40 ------- 1 2.0 0.0 0 1
r 0.530096 2 1 ack 40 ------- 1 2.0 0.0 0 1
+ 0.530096 1 0 ack 40 ------- 1 2.0 0.0 0 1
- 0.530096 1 0 ack 40 ------- 1 2.0 0.0 0 1
r 0.540128 1 0 ack 40 ------- 1 2.0 0.0 0 1
+ 0.540128 0 1 tcp 1040 ------- 1 0.0 2.0 1 2
- 0.540128 0 1 tcp 1040 ------- 1 0.0 2.0 1 2
+ 0.540128 0 1 tcp 1040 ------- 1 0.0 2.0 2 3
- 0.54096 0 1 tcp 1040 ------- 1 0.0 2.0 2 3
r 0.55096 0 1 tcp 1040 ------- 1 0.0 2.0 1 2
+ 0.55096 1 2 tcp 1040 ------- 1 0.0 2.0 1 2
- 0.55096 1 2 tcp 1040 ------- 1 0.0 2.0 1 2
r 0.551792 0 1 tcp 1040 ------- 1 0.0 2.0 2 3
+ 0.551792 1 2 tcp 1040 ------- 1 0.0 2.0 2 3
- 0.551792 1 2 tcp 1040 ------- 1 0.0 2.0 2 3
r 0.561792 1 2 tcp 1040 ------- 1 0.0 2.0 1 2
+ 0.561792 2 1 ack 40 ------- 1 2.0 0.0 1 4
- 0.561792 2 1 ack 40 ------- 1 2.0 0.0 1 4
r 0.562624 1 2 tcp 1040 ------- 1 0.0 2.0 2 3
+ 0.562624 2 1 ack 40 ------- 1 2.0 0.0 2 5
- 0.562624 2 1 ack 40 ------- 1 2.0 0.0 2 5
r 0.571824 2 1 ack 40 ------- 1 2.0 0.0 1 4
+ 0.571824 1 0 ack 40 ------- 1 2.0 0.0 1 4
- 0.571824 1 0 ack 40 ------- 1 2.0 0.0 1 4
r 0.572656 2 1 ack 40 ------- 1 2.0 0.0 2 5
+ 0.572656 1 0 ack 40 ------- 1 2.0 0.0 2 5
- 0.572656 1 0 ack 40 ------- 1 2.0 0.0 2 5
r 0.581856 1 0 ack 40 ------- 1 2.0 0.0 1 4
+ 0.581856 0 1 tcp 1040 ------- 1 0.0 2.0 3 6
- 0.581856 0 1 tcp 1040 ------- 1 0.0 2.0 3 6
+ 0.581856 0 1 tcp 1040 ------- 1 0.0 2.0 4 7
r 0.582688 1 0 ack 40 ------- 1 2.0 0.0 2 5
+ 0.582688 0 1 tcp 1040 ------- 1 0.0 2.0 5 8
+ 0.582688 0 1 tcp 1040 ------- 1 0.0 2.0 6 9
- 0.582688 0 1 tcp 1040 ------- 1 0.0 2.0 4 7
- 0.58352 0 1 tcp 1040 ------- 1 0.0 2.0 5 8
- 0.584352 0 1 tcp 1040 ------- 1 0.0 2.0 6 9
r 0.592688 0 1 tcp 1040 ------- 1 0.0 2.0 3 6
+ 0.592688 1 2 tcp 1040 ------- 1 0.0 2.0 3 6
- 0.592688 1 2 tcp 1040 ------- 1 0.0 2.0 3 6
r 0.59352 0 1 tcp 1040 ------- 1 0.0 2.0 4 7
+ 0.59352 1 2 tcp 1040 ------- 1 0.0 2.0 4 7
- 0.59352 1 2 tcp 1040 ------- 1 0.0 2.0 4 7
r 0.594352 0 1 tcp 1040 ------- 1 0.0 2.0 5 8
+ 0.594352 1 2 tcp 1040 ------- 1 0.0 2.0 5 8
- 0.594352 1 2 tcp 1040 ------- 1 0.0 2.0 5 8
r 0.595184 0 1 tcp 1040 ------- 1 0.0 2.0 6 9
+ 0.595184 1 2 tcp 1040 ------- 1 0.0 2.0 6 9
- 0.595184 1 2 tcp 1040 ------- 1 0.0 2.0 6 9
r 0.60352 1 2 tcp 1040 ------- 1 0.0 2.0 3 6
+ 0.60352 2 1 ack 40 ------- 1 2.0 0.0 3 10
- 0.60352 2 1 ack 40 ------- 1 2.0 0.0 3 10
r 0.604352 1 2 tcp 1040 ------- 1 0.0 2.0 4 7
+ 0.604352 2 1 ack 40 ------- 1 2.0 0.0 4 11
- 0.604352 2 1 ack 40 ------- 1 2.0 0.0 4 11
r 0.605184 1 2 tcp 1040 ------- 1 0.0 2.0 5 8
+ 0.605184 2 1 ack 40 ------- 1 2.0 0.0 5 12
- 0.605184 2 1 ack 40 ------- 1 2.0 0.0 5 12
r 0.606016 1 2 tcp 1040 ------- 1 0.0 2.0 6 9
+ 0.606016 2 1 ack 40 ------- 1 2.0 0.0 6 13
- 0.606016 2 1 ack 40 ------- 1 2.0 0.0 6 13
r 0.613552 2 1 ack 40 ------- 1 2.0 0.0 3 10
+ 0.613552 1 0 ack 40 ------- 1 2.0 0.0 3 10
- 0.613552 1 0 ack 40 ------- 1 2.0 0.0 3 10
r 0.614384 2 1 ack 40 ------- 1 2.0 0.0 4 11
+ 0.614384 1 0 ack 40 ------- 1 2.0 0.0 4 11
- 0.614384 1 0 ack 40 ------- 1 2.0 0.0 4 11
r 0.615216 2 1 ack 40 ------- 1 2.0 0.0 5 12
+ 0.615216 1 0 ack 40 ------- 1 2.0 0.0 5 12
- 0.615216 1 0 ack 40 ------- 1 2.0 0.0 5 12
r 0.616048 2 1 ack 40 ------- 1 2.0 0.0 6 13
+ 0.616048 1 0 ack 40 ------- 1 2.0 0.0 6 13
- 0.616048 1 0 ack 40 ------- 1 2.0 0.0 6 13
r 0.623584 1 0 ack 40 ------- 1 2.0 0.0 3 10
+ 0.623584 0 1 tcp 1040 ------- 1 0.0 2.0 7 14
- 0.623584 0 1 tcp 1040 ------- 1 0.0 2.0 7 14
+ 0.623584 0 1 tcp 1040 ------- 1 0.0 2.0 8 15
r 0.624416 1 0 ack 40 ------- 1 2.0 0.0 4 11
+ 0.624416 0 1 tcp 1040 ------- 1 0.0 2.0 9 16
+ 0.624416 0 1 tcp 1040 ------- 1 0.0 2.0 10 17
- 0.624416 0 1 tcp 1040 ------- 1 0.0 2.0 8 15
r 0.625248 1 0 ack 40 ------- 1 2.0 0.0 5 12
+ 0.625248 0 1 tcp 1040 ------- 1 0.0 2.0 11 18
+ 0.625248 0 1 tcp 1040 ------- 1 0.0 2.0 12 19
- 0.625248 0 1 tcp 1040 ------- 1 0.0 2.0 9 16
r 0.62608 1 0 ack 40 ------- 1 2.0 0.0 6 13
+ 0.62608 0 1 tcp 1040 ------- 1 0.0 2.0 13 20
+ 0.62608 0 1 tcp 1040 ------- 1 0.0 2.0 14 21
- 0.62608 0 1 tcp 1040 ------- 1 0.0 2.0 10 17
- 0.626912 0 1 tcp 1040 ------- 1 0.0 2.0 11 18
- 0.627744 0 1 tcp 1040 ------- 1 0.0 2.0 12 19
- 0.628576 0 1 tcp 1040 ------- 1 0.0 2.0 13 20
- 0.629408 0 1 tcp 1040 ------- 1 0.0 2.0 14 21
r 0.634416 0 1 tcp 1040 ------- 1 0.0 2.0 7 14
+ 0.634416 1 2 tcp 1040 ------- 1 0.0 2.0 7 14
- 0.634416 1 2 tcp 1040 ------- 1 0.0 2.0 7 14
r 0.635248 0 1 tcp 1040 ------- 1 0.0 2.0 8 15
+ 0.635248 1 2 tcp 1040 ------- 1 0.0 2.0 8 15
- 0.635248 1 2 tcp 1040 ------- 1 0.0 2.0 8 15
r 0.63608 0 1 tcp 1040 ------- 1 0.0 2.0 9 16
+ 0.63608 1 2 tcp 1040 ------- 1 0.0 2.0 9 16
- 0.63608 1 2 tcp 1040 ------- 1 0.0 2.0 9 16
r 0.636912 0 1 tcp 1040 ------- 1 0.0 2.0 10 17
+ 0.636912 1 2 tcp 1040 ------- 1 0.0 2.0 10 17
- 0.636912 1 2 tcp 1040 ------- 1 0.0 2.0 10 17
r 0.637744 0 1 tcp 1040 ------- 1 0.0 2.0 11 18
+ 0.637744 1 2 tcp 1040 ------- 1 0.0 2.0 11 18
- 0.637744 1 2 tcp 1040 ------- 1 0.0 2.0 11 18
r 0.638576 0 1 tcp 1040 ------- 1 0.0 2.0 12 19
+ 0.638576 1 2 tcp 1040 ------- 1 0.0 2.0 12 19
- 0.638576 1 2 tcp 1040 ------- 1 0.0 2.0 12 19
r 0.639408 0 1 tcp 1040 ------- 1 0.0 2.0 13 20
+ 0.639408 1 2 tcp 1040 ------- 1 0.0 2.0 13 20
- 0.639408 1 2 tcp 1040 ------- 1 0.0 2.0 13 20
r 0.64024 0 1 tcp 1040 ------- 1 0.0 2.0 14 21
+ 0.64024 1 2 tcp 1040 ------- 1 0.0 2.0 14 21
- 0.64024 1 2 tcp 1040 ------- 1 0.0 2.0 14 21
r 0.645248 1 2 tcp 1040 ------- 1 0.0 2.0 7 14
+ 0.645248 2 1 ack 40 ------- 1 2.0 0.0 7 22
- 0.645248 2 1 ack 40 ------- 1 2.0 0.0 7 22
r 0.64608 1 2 tcp 1040 ------- 1 0.0 2.0 8 15
+ 0.64608 2 1 ack 40 ------- 1 2.0 0.0 8 23
- 0.64608 2 1 ack 40 ------- 1 2.0 0.0 8 23
r 0.646912 1 2 tcp 1040 ------- 1 0.0 2.0 9 16
+ 0.646912 2 1 ack 40 ------- 1 2.0 0.0 9 24
- 0.646912 2 1 ack 40 ------- 1 2.0 0.0 9 24
r 0.647744 1 2 tcp 1040 ------- 1 0.0 2.0 10 17
+ 0.647744 2 1 ack 40 ------- 1 2.0 0.0 10 25
- 0.647744 2 1 ack 40 ------- 1 2.0 0.0 10 25
r 0.648576 1 2 tcp 1040 ------- 1 0.0 2.0 11 18
+ 0.648576 2 1 ack 40 ------- 1 2.0 0.0 11 26
- 0.648576 2 1 ack 40 ------- 1 2.0 0.0 11 26
r 0.649408 1 2 tcp 1040 ------- 1 0.0 2.0 12 19
+ 0.649408 2 1 ack 40 ------- 1 2.0 0.0 12 27
- 0.649408 2 1 ack 40 ------- 1 2.0 0.0 12 27
r 0.65024 1 2 tcp 1040 ------- 1 0.0 2.0 13 20
+ 0.65024 2 1 ack 40 ------- 1 2.0 0.0 13 28
- 0.65024 2 1 ack 40 ------- 1 2.0 0.0 13 28
r 0.651072 1 2 tcp 1040 ------- 1 0.0 2.0 14 21
+ 0.651072 2 1 ack 40 ------- 1 2.0 0.0 14 29
- 0.651072 2 1 ack 40 ------- 1 2.0 0.0 14 29
r 0.65528 2 1 ack 40 ------- 1 2.0 0.0 7 22
+ 0.65528 1 0 ack 40 ------- 1 2.0 0.0 7 22
- 0.65528 1 0 ack 40 ------- 1 2.0 0.0 7 22
r 0.656112 2 1 ack 40 ------- 1 2.0 0.0 8 23
+ 0.656112 1 0 ack 40 ------- 1 2.0 0.0 8 23
- 0.656112 1 0 ack 40 ------- 1 2.0 0.0 8 23
r 0.656944 2 1 ack 40 ------- 1 2.0 0.0 9 24
+ 0.656944 1 0 ack 40 ------- 1 2.0 0.0 9 24
- 0.656944 1 0 ack 40 ------- 1 2.0 0.0 9 24
r 0.657776 2 1 ack 40 ------- 1 2.0 0.0 10 25
+ 0.657776 1 0 ack 40 ------- 1 2.0 0.0 10 25
- 0.657776 1 0 ack 40 ------- 1 2.0 0.0 10 25
r 0.658608 2 1 ack 40 ------- 1 2.0 0.0 11 26
+ 0.658608 1 0 ack 40 ------- 1 2.0 0.0 11 26
- 0.658608 1 0 ack 40 ------- 1 2.0 0.0 11 26
r 0.65944 2 1 ack 40 ------- 1 2.0 0.0 12 27
+ 0.65944 1 0 ack 40 ------- 1 2.0 0.0 12 27
- 0.65944 1 0 ack 40 ------- 1 2.0 0.0 12 27
r 0.660272 2 1 ack 40 ------- 1 2.0 0.0 13 28
+ 0.660272 1 0 ack 40 ------- 1 2.0 0.0 13 28
- 0.660272 1 0 ack 40 ------- 1 2.0 0.0 13 28
r 0.661104 2 1 ack 40 ------- 1 2.0 0.0 14 29
+ 0.661104 1 0 ack 40 ------- 1 2.0 0.0 14 29
- 0.661104 1 0 ack 40 ------- 1 2.0 0.0 14 29
r 0.665312 1 0 ack 40 ------- 1 2.0 0.0 7 22
+ 0.665312 0 1 tcp 1040 ------- 1 0.0 2.0 15 30
- 0.665312 0 1 tcp 1040 ------- 1 0.0 2.0 15 30
+ 0.665312 0 1 tcp 1040 ------- 1 0.0 2.0 16 31
r 0.666144 1 0 ack 40 ------- 1 2.0 0.0 8 23
+ 0.666144 0 1 tcp 1040 ------- 1 0.0 2.0 17 32
+ 0.666144 0 1 tcp 1040 ------- 1 0.0 2.0 18 33
- 0.666144 0 1 tcp 1040 ------- 1 0.0 2.0 16 31
r 0.666976 1 0 ack 40 ------- 1 2.0 0.0 9 24
+ 0.666976 0 1 tcp 1040 ------- 1 0.0 2.0 19 34
+ 0.666976 0 1 tcp 1040 ------- 1 0.0 2.0 20 35
- 0.666976 0 1 tcp 1040 ------- 1 0.0 2.0 17 32
r 0.667808 1 0 ack 40 ------- 1 2.0 0.0 10 25
+ 0.667808 0 1 tcp 1040 ------- 1 0.0 2.0 21 36
+ 0.667808 0 1 tcp 1040 ------- 1 0.0 2.0 22 37
- 0.667808 0 1 tcp 1040 ------- 1 0.0 2.0 18 33
r 0.66864 1 0 ack 40 ------- 1 2.0 0.0 11 26
+ 0.66864 0 1 tcp 1040 ------- 1 0.0 2.0 23 38
+ 0.66864 0 1 tcp 1040 ------- 1 0.0 2.0 24 39
- 0.66864 0 1 tcp 1040 ------- 1 0.0 2.0 19 34
r 0.669472 1 0 ack 40 ------- 1 2.0 0.0 12 27
+ 0.669472 0 1 tcp 1040 ------- 1 0.0 2.0 25 40
+ 0.669472 0 1 tcp 1040 ------- 1 0.0 2.0 26 41
- 0.669472 0 1 tcp 1040 ------- 1 0.0 2.0 20 35
r 0.670304 1 0 ack 40 ------- 1 2.0 0.0 13 28
+ 0.670304 0 1 tcp 1040 ------- 1 0.0 2.0 27 42
+ 0.670304 0 1 tcp 1040 ------- 1 0.0 2.0 28 43
- 0.670304 0 1 tcp 1040 ------- 1 0.0 2.0 21 36
r 0.671136 1 0 ack 40 ------- 1 2.0 0.0 14 29
+ 0.671136 0 1 tcp 1040 ------- 1 0.0 2.0 29 44
+ 0.671136 0 1 tcp 1040 ------- 1 0.0 2.0 30 45
- 0.671136 0 1 tcp 1040 ------- 1 0.0 2.0 22 37
- 0.671968 0 1 tcp 1040 ------- 1 0.0 2.0 23 38
- 0.6728 0 1 tcp 1040 ------- 1 0.0 2.0 24 39
- 0.673632 0 1 tcp 1040 ------- 1 0.0 2.0 25 40
- 0.674464 0 1 tcp 1040 ------- 1 0.0 2.0 26 41
- 0.675296 0 1 tcp 1040 ------- 1 0.0 2.0 27 42
- 0.676128 0 1 tcp 1040 ------- 1 0.0 2.0 28 43
r 0.676144 0 1 tcp 1040 ------- 1 0.0 2.0 15 30
+ 0.676144 1 2 tcp 1040 ------- 1 0.0 2.0 15 30
- 0.676144 1 2 tcp 1040 ------- 1 0.0 2.0 15 30
- 0.67696 0 1 tcp 1040 ------- 1 0.0 2.0 29 44
r 0.676976 0 1 tcp 1040 ------- 1 0.0 2.0 16 31
+ 0.676976 1 2 tcp 1040 ------- 1 0.0 2.0 16 31
- 0.676976 1 2 tcp 1040 ------- 1 0.0 2.0 16 31
- 0.677792 0 1 tcp 1040 ------- 1 0.0 2.0 30 45
r 0.677808 0 1 tcp 1040 ------- 1 0.0 2.0 17 32
+ 0.677808 1 2 tcp 1040 ------- 1 0.0 2.0 17 32
- 0.677808 1 2 tcp 1040 ------- 1 0.0 2.0 17 32
r 0.67864 0 1 tcp 1040 ------- 1 0.0 2.0 18 33
+ 0.67864 1 2 tcp 1040 ------- 1 0.0 2.0 18 33
- 0.67864 1 2 tcp 1040 ------- 1 0.0 2.0 18 33
r 0.679472 0 1 tcp 1040 ------- 1 0.0 2.0 19 34
+ 0.679472 1 2 tcp 1040 ------- 1 0.0 2.0 19 34
- 0.679472 1 2 tcp 1040 ------- 1 0.0 2.0 19 34
r 0.680304 0 1 tcp 1040 ------- 1 0.0 2.0 20 35
+ 0.680304 1 2 tcp 1040 ------- 1 0.0 2.0 20 35
- 0.680304 1 2 tcp 1040 ------- 1 0.0 2.0 20 35
r 0.681136 0 1 tcp 1040 ------- 1 0.0 2.0 21 36
+ 0.681136 1 2 tcp 1040 ------- 1 0.0 2.0 21 36
- 0.681136 1 2 tcp 1040 ------- 1 0.0 2.0 21 36
r 0.681968 0 1 tcp 1040 ------- 1 0.0 2.0 22 37
+ 0.681968 1 2 tcp 1040 ------- 1 0.0 2.0 22 37
- 0.681968 1 2 tcp 1040 ------- 1 0.0 2.0 22 37
r 0.6828 0 1 tcp 1040 ------- 1 0.0 2.0 23 38
+ 0.6828 1 2 tcp 1040 ------- 1 0.0 2.0 23 38
- 0.6828 1 2 tcp 1040 ------- 1 0.0 2.0 23 38
r 0.683632 0 1 tcp 1040 ------- 1 0.0 2.0 24 39
+ 0.683632 1 2 tcp 1040 ------- 1 0.0 2.0 24 39
- 0.683632 1 2 tcp 1040 ------- 1 0.0 2.0 24 39
r 0.684464 0 1 tcp 1040 ------- 1 0.0 2.0 25 40
+ 0.684464 1 2 tcp 1040 ------- 1 0.0 2.0 25 40
- 0.684464 1 2 tcp 1040 ------- 1 0.0 2.0 25 40
r 0.685296 0 1 tcp 1040 ------- 1 0.0 2.0 26 41
+ 0.685296 1 2 tcp 1040 ------- 1 0.0 2.0 26 41
- 0.685296 1 2 tcp 1040 ------- 1 0.0 2.0 26 41
r 0.686128 0 1 tcp 1040 ------- 1 0.0 2.0 27 42
+ 0.686128 1 2 tcp 1040 ------- 1 0.0 2.0 27 42
- 0.686128 1 2 tcp 1040 ------- 1 0.0 2.0 27 42
r 0.68696 0 1 tcp 1040 ------- 1 0.0 2.0 28 43
+ 0.68696 1 2 tcp 1040 ------- 1 0.0 2.0 28 43
- 0.68696 1 2 tcp 1040 ------- 1 0.0 2.0 28 43
r 0.686976 1 2 tcp 1040 ------- 1 0.0 2.0 15 30
+ 0.686976 2 1 ack 40 ------- 1 2.0 0.0 15 46
- 0.686976 2 1 ack 40 ------- 1 2.0 0.0 15 46
r 0.687792 0 1 tcp 1040 ------- 1 0.0 2.0 29 44
+ 0.687792 1 2 tcp 1040 ------- 1 0.0 2.0 29 44
- 0.687792 1 2 tcp 1040 ------- 1 0.0 2.0 29 44
r 0.687808 1 2 tcp 1040 ------- 1 0.0 2.0 16 31
+ 0.687808 2 1 ack 40 ------- 1 2.0 0.0 16 47
- 0.687808 2 1 ack 40 ------- 1 2.0 0.0 16 47
r 0.688624 0 1 tcp 1040 ------- 1 0.0 2.0 30 45
+ 0.688624 1 2 tcp 1040 ------- 1 0.0 2.0 30 45
- 0.688624 1 2 tcp 1040 ------- 1 0.0 2.0 30 45
r 0.68864 1 2 tcp 1040 ------- 1 0.0 2.0 17 32
+ 0.68864 2 1 ack 40 ------- 1 2.0 0.0 17 48
- 0.68864 2 1 ack 40 ------- 1 2.0 0.0 17 48
r 0.689472 1 2 tcp 1040 ------- 1 0.0 2.0 18 33
+ 0.689472 2 1 ack 40 ------- 1 2.0 0.0 18 49
- 0.689472 2 1 ack 40 ------- 1 2.0 0.0 18 49
r 0.690304 1 2 tcp 1040 ------- 1 0.0 2.0 19 34
+ 0.690304 2 1 ack 40 ------- 1 2.0 0.0 19 50
- 0.690304 2 1 ack 40 ------- 1 2.0 0.0 19 50
r 0.691136 1 2 tcp 1040 ------- 1 0.0 2.0 20 35
+ 0.691136 2 1 ack 40 ------- 1 2.0 0.0 20 51
- 0.691136 2 1 ack 40 ------- 1 2.0 0.0 20 51
r 0.691968 1 2 tcp 1040 ------- 1 0.0 2.0 21 36
+ 0.691968 2 1 ack 40 ------- 1 2.0 0.0 21 52
- 0.691968 2 1 ack 40 ------- 1 2.0 0.0 21 52
r 0.6928 1 2 tcp 1040 ------- 1 0.0 2.0 22 37
+ 0.6928 2 1 ack 40 ------- 1 2.0 0.0 22 53
- 0.6928 2 1 ack 40 ------- 1 2.0 0.0 22 53
r 0.693632 1 2 tcp 1040 ------- 1 0.0 2.0 23 38
+ 0.693632 2 1 ack 40 ------- 1 2.0 0.0 23 54
- 0.693632 2 1 ack 40 ------- 1 2.0 0.0 23 54
r 0.694464 1 2 tcp 1040 ------- 1 0.0 2.0 24 39
+ 0.694464 2 1 ack 40 ------- 1 2.0 0.0 24 55
- 0.694464 2 1 ack 40 ------- 1 2.0 0.0 24 55
r 0.695296 1 2 tcp 1040 ------- 1 0.0 2.0 25 40
+ 0.695296 2 1 ack 40 ------- 1 2.0 0.0 25 56
- 0.695296 2 1 ack 40 ------- 1 2.0 0.0 25 56
r 0.696128 1 2 tcp 1040 ------- 1 0.0 2.0 26 41
+ 0.696128 2 1 ack 40 ------- 1 2.0 0.0 26 57
- 0.696128 2 1 ack 40 ------- 1 2.0 0.0 26 57
r 0.69696 1 2 tcp 1040 ------- 1 0.0 2.0 27 42
+ 0.69696 2 1 ack 40 ------- 1 2.0 0.0 27 58
- 0.69696 2 1 ack 40 ------- 1 2.0 0.0 27 58
r 0.697008 2 1 ack 40 ------- 1 2.0 0.0 15 46
+ 0.697008 1 0 ack 40 ------- 1 2.0 0.0 15 46
- 0.697008 1 0 ack 40 ------- 1 2.0 0.0 15 46
r 0.697792 1 2 tcp 1040 ------- 1 0.0 2.0 28 43
+ 0.697792 2 1 ack 40 ------- 1 2.0 0.0 28 59
- 0.697792 2 1 ack 40 ------- 1 2.0 0.0 28 59
r 0.69784 2 1 ack 40 ------- 1 2.0 0.0 16 47
+ 0.69784 1 0 ack 40 ------- 1 2.0 0.0 16 47
- 0.69784 1 0 ack 40 ------- 1 2.0 0.0 16 47
r 0.698624 1 2 tcp 1040 ------- 1 0.0 2.0 29 44
+ 0.698624 2 1 ack 40 ------- 1 2.0 0.0 29 60
- 0.698624 2 1 ack 40 ------- 1 2.0 0.0 29 60
r 0.698672 2 1 ack 40 ------- 1 2.0 0.0 17 48
+ 0.698672 1 0 ack 40 ------- 1 2.0 0.0 17 48
- 0.698672 1 0 ack 40 ------- 1 2.0 0.0 17 48
r 0.699456 1 2 tcp 1040 ------- 1 0.0 2.0 30 45
+ 0.699456 2 1 ack 40 ------- 1 2.0 0.0 30 61
- 0.699456 2 1 ack 40 ------- 1 2.0 0.0 30 61
r 0.699504 2 1 ack 40 ------- 1 2.0 0.0 18 49
+ 0.699504 1 0 ack 40 ------- 1 2.0 0.0 18 49
- 0.699504 1 0 ack 40 ------- 1 2.0 0.0 18 49
r 0.700336 2 1 ack 40 ------- 1 2.0 0.0 19 50
+ 0.700336 1 0 ack 40 ------- 1 2.0 0.0 19 50
- 0.700336 1 0 ack 40 ------- 1 2.0 0.0 19 50
r 0.701168 2 1 ack 40 ------- 1 2.0 0.0 20 51
+ 0.701168 1 0 ack 40 ------- 1 2.0 0.0 20 51
- 0.701168 1 0 ack 40 ------- 1 2.0 0.0 20 51
r 0.702 2 1 ack 40 ------- 1 2.0 0.0 21 52
+ 0.702 1 0 ack 40 ------- 1 2.0 0.0 21 52
- 0.702 1 0 ack 40 ------- 1 2.0 0.0 21 52
r 0.702832 2 1 ack 40 ------- 1 2.0 0.0 22 53
+ 0.702832 1 0 ack 40 ------- 1 2.0 0.0 22 53
- 0.702832 1 0 ack 40 ------- 1 2.0 0.0 22 53
r 0.703664 2 1 ack 40 ------- 1 2.0 0.0 23 54
+ 0.703664 1 0 ack 40 ------- 1 2.0 0.0 23 54
- 0.703664 1 0 ack 40 ------- 1 2.0 0.0 23 54
r 0.704496 2 1 ack 40 ------- 1 2.0 0.0 24 55
+ 0.704496 1 0 ack 40 ------- 1 2.0 0.0 24 55
- 0.704496 1 0 ack 40 ------- 1 2.0 0.0 24 55
r 0.705328 2 1 ack 40 ------- 1 2.0 0.0 25 56
+ 0.705328 1 0 ack 40 ------- 1 2.0 0.0 25 56
- 0.705328 1 0 ack 40 ------- 1 2.0 0.0 25 56
r 0.70616 2 1 ack 40 ------- 1 2.0 0.0 26 57
+ 0.70616 1 0 ack 40 ------- 1 2.0 0.0 26 57
- 0.70616 1 0 ack 40 ------- 1 2.0 0.0 26 57
r 0.706992 2 1 ack 40 ------- 1 2.0 0.0 27 58
+ 0.706992 1 0 ack 40 ------- 1 2.0 0.0 27 58
- 0.706992 1 0 ack 40 ------- 1 2.0 0.0 27 58
r 0.70704 1 0 ack 40 ------- 1 2.0 0.0 15 46
+ 0.70704 0 1 tcp 1040 ------- 1 0.0 2.0 31 62
- 0.70704 0 1 tcp 1040 ------- 1 0.0 2.0 31 62
+ 0.70704 0 1 tcp 1040 ------- 1 0.0 2.0 32 63
r 0.707824 2 1 ack 40 ------- 1 2.0 0.0 28 59
+ 0.707824 1 0 ack 40 ------- 1 2.0 0.0 28 59
- 0.707824 1 0 ack 40 ------- 1 2.0 0.0 28 59
r 0.707872 1 0 ack 40 ------- 1 2.0 0.0 16 47
+ 0.707872 0 1 tcp 1040 ------- 1 0.0 2.0 33 64
+ 0.707872 0 1 tcp 1040 ------- 1 0.0 2.0 34 65
- 0.707872 0 1 tcp 1040 ------- 1 0.0 2.0 32 63
r 0.708656 2 1 ack 40 ------- 1 2.0 0.0 29 60
+ 0.708656 1 0 ack 40 ------- 1 2.0 0.0 29 60
- 0.708656 1 0 ack 40 ------- 1 2.0 0.0 29 60
r 0.708704 1 0 ack 40 ------- 1 2.0 0.0 17 48
+ 0.708704 0 1 tcp 1040 ------- 1 0.0 2.0 35 66
+ 0.708704 0 1 tcp 1040 ------- 1 0.0 2.0 36 67
- 0.708704 0 1 tcp 1040 ------- 1 0.0 2.0 33 64
r 0.709488 2 1 ack 40 ------- 1 2.0 0.0 30 61
+ 0.709488 1 0 ack 40 ------- 1 2.0 0.0 30 61
- 0.709488 1 0 ack 40 ------- 1 2.0 0.0 30 61
r 0.709536 1 0 ack 40 ------- 1 2.0 0.0 18 49
+ 0.709536 0 1 tcp 1040 ------- 1 0.0 2.0 37 68
+ 0.709536 0 1 tcp 1040 ------- 1 0.0 2.0 38 69
- 0.709536 0 1 tcp 1040 ------- 1 0.0 2.0 34 65
r 0.710368 1 0 ack 40 ------- 1 2.0 0.0 19 50
+ 0.710368 0 1 tcp 1040 ------- 1 0.0 2.0 39 70
- 0.710368 0 1 tcp 1040 ------- 1 0.0 2.0 35 66
r 0.7112 1 0 ack 40 ------- 1 2.0 0.0 20 51
+ 0.7112 0 1 tcp 1040 ------- 1 0.0 2.0 40 71
- 0.7112 0 1 tcp 1040 ------- 1 0.0 2.0 36 67
r 0.712032 1 0 ack 40 ------- 1 2.0 0.0 21 52
+ 0.712032 0 1 tcp 1040 ------- 1 0.0 2.0 41 72
- 0.712032 0 1 tcp 1040 ------- 1 0.0 2.0 37 68
r 0.712864 1 0 ack 40 ------- 1 2.0 0.0 22 53
+ 0.712864 0 1 tcp 1040 ------- 1 0.0 2.0 42 73
- 0.712864 0 1 tcp 1040 ------- 1 0.0 2.0 38 69
r 0.713696 1 0 ack 40 ------- 1 2.0 0.0 23 54
+ 0.713696 0 1 tcp 1040 ------- 1 0.0 2.0 43 74
- 0.713696 0 1 tcp 1040 ------- 1 0.0 2.0 39 70
r 0.714528 1 0 ack 40 ------- 1 2.0 0.0 24 55
+ 0.714528 0 1 tcp 1040 ------- 1 0.0 2.0 44 75
- 0.714528 0 1 tcp 1040 ------- 1 0.0 2.0 40 71
r 0.71536 1 0 ack 40 ------- 1 2.0 0.0 25 56
+ 0.71536 0 1 tcp 1040 ------- 1 0.0 2.0 45 76
- 0.71536 0 1 tcp 1040 ------- 1 0.0 2.0 41 72
r 0.716192 1 0 ack 40 ------- 1 2.0 0.0 26 57
+ 0.716192 0 1 tcp 1040 ------- 1 0.0 2.0 46 77
- 0.716192 0 1 tcp 1040 ------- 1 0.0 2.0 42 73
r 0.717024 1 0 ack 40 ------- 1 2.0 0.0 27 58
+ 0.717024 0 1 tcp 1040 ------- 1 0.0 2.0 47 78
- 0.717024 0 1 tcp 1040 ------- 1 0.0 2.0 43 74
r 0.717856 1 0 ack 40 ------- 1 2.0 0.0 28 59
+ 0.717856 0 1 tcp 1040 ------- 1 0.0 2.0 48 79
- 0.717856 0 1 tcp 1040 ------- 1 0.0 2.0 44 75
r 0.717872 0 1 tcp 1040 ------- 1 0.0 2.0 31 62
+ 0.717872 1 2 tcp 1040 ------- 1 0.0 2.0 31 62
- 0.717872 1 2 tcp 1040 ------- 1 0.0 2.0 31 62
r 0.718688 1 0 ack 40 ------- 1 2.0 0.0 29 60
+ 0.718688 0 1 tcp 1040 ------- 1 0.0 2.0 49 80
- 0.718688 0 1 tcp 1040 ------- 1 0.0 2.0 45 76
r 0.718704 0 1 tcp 1040 ------- 1 0.0 2.0 32 63
+ 0.718704 1 2 tcp 1040 ------- 1 0.0 2.0 32 63
- 0.718704 1 2 tcp 1040 ------- 1 0.0 2.0 32 63
r 0.71952 1 0 ack 40 ------- 1 2.0 0.0 30 61
+ 0.71952 0 1 tcp 1040 ------- 1 0.0 2.0 50 81
- 0.71952 0 1 tcp 1040 ------- 1 0.0 2.0 46 77
r 0.719536 0 1 tcp 1040 ------- 1 0.0 2.0 33 64
+ 0.719536 1 2 tcp 1040 ------- 1 0.0 2.0 33 64
- 0.719536 1 2 tcp 1040 ------- 1 0.0 2.0 33 64
- 0.720352 0 1 tcp 1040 ------- 1 0.0 2.0 47 78
r 0.720368 0 1 tcp 1040 ------- 1 0.0 2.0 34 65
+ 0.720368 1 2 tcp 1040 ------- 1 0.0 2.0 34 65
- 0.720368 1 2 tcp 1040 ------- 1 0.0 2.0 34 65
- 0.721184 0 1 tcp 1040 ------- 1 0.0 2.0 48 79
r 0.7212 0 1 tcp 1040 ------- 1 0.0 2.0 35 66
+ 0.7212 1 2 tcp 1040 ------- 1 0.0 2.0 35 66
- 0.7212 1 2 tcp 1040 ------- 1 0.0 2.0 35 66
- 0.722016 0 1 tcp 1040 ------- 1 0.0 2.0 49 80
r 0.722032 0 1 tcp 1040 ------- 1 0.0 2.0 36 67
+ 0.722032 1 2 tcp 1040 ------- 1 0.0 2.0 36 67
- 0.722032 1 2 tcp 1040 ------- 1 0.0 2.0 36 67
- 0.722848 0 1 tcp 1040 ------- 1 0.0 2.0 50 81
r 0.722864 0 1 tcp 1040 ------- 1 0.0 2.0 37 68
+ 0.722864 1 2 tcp 1040 ------- 1 0.0 2.0 37 68
- 0.722864 1 2 tcp 1040 ------- 1 0.0 2.0 37 68
r 0.723696 0 1 tcp 1040 ------- 1 0.0 2.0 38 69
+ 0.723696 1 2 tcp 1040 ------- 1 0.0 2.0 38 69
- 0.723696 1 2 tcp 1040 ------- 1 0.0 2.0 38 69
r 0.724528 0 1 tcp 1040 ------- 1 0.0 2.0 39 70
+ 0.724528 1 2 tcp 1040 ------- 1 0.0 2.0 39 70
- 0.724528 1 2 tcp 1040 ------- 1 0.0 2.0 39 70
r 0.72536 0 1 tcp 1040 ------- 1 0.0 2.0 40 71
+ 0.72536 1 2 tcp 1040 ------- 1 0.0 2.0 40 71
- 0.72536 1 2 tcp 1040 ------- 1 0.0 2.0 40 71
r 0.726192 0 1 tcp 1040 ------- 1 0.0 2.0 41 72
+ 0.726192 1 2 tcp 1040 ------- 1 0.0 2.0 41 72
- 0.726192 1 2 tcp 1040 ------- 1 0.0 2.0 41 72
r 0.727024 0 1 tcp 1040 ------- 1 0.0 2.0 42 73
+ 0.727024 1 2 tcp 1040 ------- 1 0.0 2.0 42 73
- 0.727024 1 2 tcp 1040 ------- 1 0.0 2.0 42 73
r 0.727856 0 1 tcp 1040 ------- 1 0.0 2.0 43 74
+ 0.727856 1 2 tcp 1040 ------- 1 0.0 2.0 43 74
- 0.727856 1 2 tcp 1040 ------- 1 0.0 2.0 43 74
r 0.728688 0 1 tcp 1040 ------- 1 0.0 2.0 44 75
+ 0.728688 1 2 tcp 1040 ------- 1 0.0 2.0 44 75
- 0.728688 1 2 tcp 1040 ------- 1 0.0 2.0 44 75
r 0.728704 1 2 tcp 1040 ------- 1 0.0 2.0 31 62
+ 0.728704 2 1 ack 40 ------- 1 2.0 0.0 31 82
- 0.728704 2 1 ack 40 ------- 1 2.0 0.0 31 82
r 0.72952 0 1 tcp 1040 ------- 1 0.0 2.0 45 76
+ 0.72952 1 2 tcp 1040 ------- 1 0.0 2.0 45 76
- 0.72952 1 2 tcp 1040 ------- 1 0.0 2.0 45 76
r 0.729536 1 2 tcp 1040 ------- 1 0.0 2.0 32 63
+ 0.729536 2 1 ack 40 ------- 1 2.0 0.0 32 83
- 0.729536 2 1 ack 40 ------- 1 2.0 0.0 32 83
r 0.730352 0 1 tcp 1040 ------- 1 0.0 2.0 46 77
+ 0.730352 1 2 tcp 1040 ------- 1 0.0 2.0 46 77
- 0.730352 1 2 tcp 1040 ------- 1 0.0 2.0 46 77
r 0.730368 1 2 tcp 1040 ------- 1 0.0 2.0 33 64
+ 0.730368 2 1 ack 40 ------- 1 2.0 0.0 33 84
- 0.730368 2 1 ack 40 ------- 1 2.0 0.0 33 84
r 0.731184 0 1 tcp 1040 ------- 1 0.0 2.0 47 78
+ 0.731184 1 2 tcp 1040 ------- 1 0.0 2.0 47 78
- 0.731184 1 2 tcp 1040 ------- 1 0.0 2.0 47 78
r 0.7312 1 2 tcp 1040 ------- 1 0.0 2.0 34 65
+ 0.7312 2 1 ack 40 ------- 1 2.0 0.0 34 85
- 0.7312 2 1 ack 40 ------- 1 2.0 0.0 34 85
r 0.732016 0 1 tcp 1040 ------- 1 0.0 2.0 48 79
+ 0.732016 1 2 tcp 1040 ------- 1 0.0 2.0 48 79
- 0.732016 1 2 tcp 1040 ------- 1 0.0 2.0 48 79
r 0.732032 1 2 tcp 1040 ------- 1 0.0 2.0 35 66
+ 0.732032 2 1 ack 40 ------- 1 2.0 0.0 35 86
- 0.732032 2 1 ack 40 ------- 1 2.0 0.0 35 86
r 0.732848 0 1 tcp 1040 ------- 1 0.0 2.0 49 80
+ 0.732848 1 2 tcp 1040 ------- 1 0.0 2.0 49 80
- 0.732848 1 2 tcp 1040 ------- 1 0.0 2.0 49 80
r 0.732864 1 2 tcp 1040 ------- 1 0.0 2.0 36 67
+ 0.732864 2 1 ack 40 ------- 1 2.0 0.0 36 87
- 0.732864 2 1 ack 40 ------- 1 2.0 0.0 36 87
r 0.73368 0 1 tcp 1040 ------- 1 0.0 2.0 50 81
+ 0.73368 1 2 tcp 1040 ------- 1 0.0 2.0 50 81
- 0.73368 1 2 tcp 1040 ------- 1 0.0 2.0 50 81
r 0.733696 1 2 tcp 1040 ------- 1 0.0 2.0 37 68
+ 0.733696 2 1 ack 40 ------- 1 2.0 0.0 37 88
- 0.733696 2 1 ack 40 ------- 1 2.0 0.0 37 88
r 0.734528 1 2 tcp 1040 ------- 1 0.0 2.0 38 69
+ 0.734528 2 1 ack 40 ------- 1 2.0 0.0 38 89
- 0.734528 2 1 ack 40 ------- 1 2.0 0.0 38 89
r 0.73536 1 2 tcp 1040 ------- 1 0.0 2.0 39 70
+ 0.73536 2 1 ack 40 ------- 1 2.0 0.0 39 90
- 0.73536 2 1 ack 40 ------- 1 2.0 0.0 39 90
r 0.736192 1 2 tcp 1040 ------- 1 0.0 2.0 40 71
+ 0.736192 2 1 ack 40 ------- 1 2.0 0.0 40 91
- 0.736192 2 1 ack 40 ------- 1 2.0 0.0 40 91
r 0.737024 1 2 tcp 1040 ------- 1 0.0 2.0 41 72
+ 0.737024 2 1 ack 40 ------- 1 2.0 0.0 41 92
- 0.737024 2 1 ack 40 ------- 1 2.0 0.0 41 92
r 0.737856 1 2 tcp 1040 ------- 1 0.0 2.0 42 73
+ 0.737856 2 1 ack 40 ------- 1 2.0 0.0 42 93
- 0.737856 2 1 ack 40 ------- 1 2.0 0.0 42 93
r 0.738688 1 2 tcp 1040 ------- 1 0.0 2.0 43 74
+ 0.738688 2 1 ack 40 ------- 1 2.0 0.0 43 94
- 0.738688 2 1 ack 40 ------- 1 2.0 0.0 43 94
r 0.738736 2 1 ack 40 ------- 1 2.0 0.0 31 82
+ 0.738736 1 0 ack 40 ------- 1 2.0 0.0 31 82
- 0.738736 1 0 ack 40 ------- 1 2.0 0.0 31 82
r 0.73952 1 2 tcp 1040 ------- 1 0.0 2.0 44 75
+ 0.73952 2 1 ack 40 ------- 1 2.0 0.0 44 95
- 0.73952 2 1 ack 40 ------- 1 2.0 0.0 44 95
r 0.739568 2 1 ack 40 ------- 1 2.0 0.0 32 83
+ 0.739568 1 0 ack 40 ------- 1 2.0 0.0 32 83
- 0.739568 1 0 ack 40 ------- 1 2.0 0.0 32 83
r 0.740352 1 2 tcp 1040 ------- 1 0.0 2.0 45 76
+ 0.740352 2 1 ack 40 ------- 1 2.0 0.0 45 96
- 0.740352 2 1 ack 40 ------- 1 2.0 0.0 45 96
r 0.7404 2 1 ack 40 ------- 1 2.0 0.0 33 84
+ 0.7404 1 0 ack 40 ------- 1 2.0 0.0 33 84
- 0.7404 1 0 ack 40 ------- 1 2.0 0.0 33 84
r 0.741184 1 2 tcp 1040 ------- 1 0.0 2.0 46 77
+ 0.741184 2 1 ack 40 ------- 1 2.0 0.0 46 97
- 0.741184 2 1 ack 40 ------- 1 2.0 0.0 46 97
r 0.741232 2 1 ack 40 ------- 1 2.0 0.0 34 85
+ 0.741232 1 0 ack 40 ------- 1 2.0 0.0 34 85
- 0.741232 1 0 ack 40 ------- 1 2.0 0.0 34 85
r 0.742016 1 2 tcp 1040 ------- 1 0.0 2.0 47 78
+ 0.742016 2 1 ack 40 ------- 1 2.0 0.0 47 98
- 0.742016 2 1 ack 40 ------- 1 2.0 0.0 47 98
r 0.742064 2 1 ack 40 ------- 1 2.0 0.0 35 86
+ 0.742064 1 0 ack 40 ------- 1 2.0 0.0 35 86
- 0.742064 1 0 ack 40 ------- 1 2.0 0.0 35 86
r 0.742848 1 2 tcp 1040 ------- 1 0.0 2.0 48 79
+ 0.742848 2 1 ack 40 ------- 1 2.0 0.0 48 99
- 0.742848 2 1 ack 40 ------- 1 2.0 0.0 48 99
r 0.742896 2 1 ack 40 ------- 1 2.0 0.0 36 87
+ 0.742896 1 0 ack 40 ------- 1 2.0 0.0 36 87
- 0.742896 1 0 ack 40 ------- 1 2.0 0.0 36 87
r 0.74368 1 2 tcp 1040 ------- 1 0.0 2.0 49 80
+ 0.74368 2 1 ack 40 ------- 1 2.0 0.0 49 100
- 0.74368 2 1 ack 40 ------- 1 2.0 0.0 49 100
r 0.743728 2 1 ack 40 ------- 1 2.0 0.0 37 88
+ 0.743728 1 0 ack 40 ------- 1 2.0 0.0 37 88
- 0.743728 1 0 ack 40 ------- 1 2.0 0.0 37 88
r 0.744512 1 2 tcp 1040 ------- 1 0.0 2.0 50 81
+ 0.744512 2 1 ack 40 ------- 1 2.0 0.0 50 101
- 0.744512 2 1 ack 40 ------- 1 2.0 0.0 50 101
r 0.74456 2 1 ack 40 ------- 1 2.0 0.0 38 89
+ 0.74456 1 0 ack 40 ------- 1 2.0 0.0 38 89
- 0.74456 1 0 ack 40 ------- 1 2.0 0.0 38 89
r 0.745392 2 1 ack 40 ------- 1 2.0 0.0 39 90
+ 0.745392 1 0 ack 40 ------- 1 2.0 0.0 39 90
- 0.745392 1 0 ack 40 ------- 1 2.0 0.0 39 90
r 0.746224 2 1 ack 40 ------- 1 2.0 0.0 40 91
+ 0.746224 1 0 ack 40 ------- 1 2.0 0.0 40 91
- 0.746224 1 0 ack 40 ------- 1 2.0 0.0 40 91
r 0.747056 2 1 ack 40 ------- 1 2.0 0.0 41 92
+ 0.747056 1 0 ack 40 ------- 1 2.0 0.0 41 92
- 0.747056 1 0 ack 40 ------- 1 2.0 0.0 41 92
r 0.747888 2 1 ack 40 ------- 1 2.0 0.0 42 93
+ 0.747888 1 0 ack 40 ------- 1 2.0 0.0 42 93
- 0.747888 1 0 ack 40 ------- 1 2.0 0.0 42 93
r 0.74872 2 1 ack 40 ------- 1 2.0 0.0 43 94
+ 0.74872 1 0 ack 40 ------- 1 2.0 0.0 43 94
- 0.74872 1 0 ack 40 ------- 1 2.0 0.0 43 94
r 0.748768 1 0 ack 40 ------- 1 2.0 0.0 31 82
+ 0.748768 0 1 tcp 1040 ------- 1 0.0 2.0 51 102
- 0.748768 0 1 tcp 1040 ------- 1 0.0 2.0 51 102
r 0.749552 2 1 ack 40 ------- 1 2.0 0.0 44 95
+ 0.749552 1 0 ack 40 ------- 1 2.0 0.0 44 95
- 0.749552 1 0 ack 40 ------- 1 2.0 0.0 44 95
r 0.7496 1 0 ack 40 ------- 1 2.0 0.0 32 83
+ 0.7496 0 1 tcp 1040 ------- 1 0.0 2.0 52 103
- 0.7496 0 1 tcp 1040 ------- 1 0.0 2.0 52 103
r 0.750384 2 1 ack 40 ------- 1 2.0 0.0 45 96
+ 0.750384 1 0 ack 40 ------- 1 2.0 0.0 45 96
- 0.750384 1 0 ack 40 ------- 1 2.0 0.0 45 96
r 0.750432 1 0 ack 40 ------- 1 2.0 0.0 33 84
+ 0.750432 0 1 tcp 1040 ------- 1 0.0 2.0 53 104
- 0.750432 0 1 tcp 1040 ------- 1 0.0 2.0 53 104
r 0.751216 2 1 ack 40 ------- 1 2.0 0.0 46 97
+ 0.751216 1 0 ack 40 ------- 1 2.0 0.0 46 97
- 0.751216 1 0 ack 40 ------- 1 2.0 0.0 46 97
r 0.751264 1 0 ack 40 ------- 1 2.0 0.0 34 85
+ 0.751264 0 1 tcp 1040 ------- 1 0.0 2.0 54 105
- 0.751264 0 1 tcp 1040 ------- 1 0.0 2.0 54 105
r 0.752048 2 1 ack 40 ------- 1 2.0 0.0 47 98
+ 0.752048 1 0 ack 40 ------- 1 2.0 0.0 47 98
- 0.752048 1 0 ack 40 ------- 1 2.0 0.0 47 98
r 0.752096 1 0 ack 40 ------- 1 2.0 0.0 35 86
+ 0.752096 0 1 tcp 1040 ------- 1 0.0 2.0 55 106
- 0.752096 0 1 tcp 1040 ------- 1 0.0 2.0 55 106
r 0.75288 2 1 ack 40 ------- 1 2.0 0.0 48 99
+ 0.75288 1 0 ack 40 ------- 1 2.0 0.0 48 99
- 0.75288 1 0 ack 40 ------- 1 2.0 0.0 48 99
r 0.752928 1 0 ack 40 ------- 1 2.0 0.0 36 87
+ 0.752928 0 1 tcp 1040 ------- 1 0.0 2.0 56 107
- 0.752928 0 1 tcp 1040 ------- 1 0.0 2.0 56 107
r 0.753712 2 1 ack 40 ------- 1 2.0 0.0 49 100
+ 0.753712 1 0 ack 40 ------- 1 2.0 0.0 49 100
- 0.753712 1 0 ack 40 ------- 1 2.0 0.0 49 100
r 0.75376 1 0 ack 40 ------- 1 2.0 0.0 37 88
+ 0.75376 0 1 tcp 1040 ------- 1 0.0 2.0 57 108
- 0.75376 0 1 tcp 1040 ------- 1 0.0 2.0 57 108
r 0.754544 2 1 ack 40 ------- 1 2.0 0.0 50 101
+ 0.754544 1 0 ack 40 ------- 1 2.0 0.0 50 101
- 0.754544 1 0 ack 40 ------- 1 2.0 0.0 50 101
r 0.754592 1 0 ack 40 ------- 1 2.0 0.0 38 89
+ 0.754592 0 1 tcp 1040 ------- 1 0.0 2.0 58 109
- 0.754592 0 1 tcp 1040 ------- 1 0.0 2.0 58 109
r 0.755424 1 0 ack 40 ------- 1 2.0 0.0 39 90
+ 0.755424 0 1 tcp 1040 ------- 1 0.0 2.0 59 110
- 0.755424 0 1 tcp 1040 ------- 1 0.0 2.0 59 110
r 0.756256 1 0 ack 40 ------- 1 2.0 0.0 40 91
+ 0.756256 0 1 tcp 1040 ------- 1 0.0 2.0 60 111
- 0.756256 0 1 tcp 1040 ------- 1 0.0 2.0 60 111
r 0.757088 1 0 ack 40 ------- 1 2.0 0.0 41 92
+ 0.757088 0 1 tcp 1040 ------- 1 0.0 2.0 61 112
- 0.757088 0 1 tcp 1040 ------- 1 0.0 2.0 61 112
r 0.75792 1 0 ack 40 ------- 1 2.0 0.0 42 93
+ 0.75792 0 1 tcp 1040 ------- 1 0.0 2.0 62 113
- 0.75792 0 1 tcp 1040 ------- 1 0.0 2.0 62 113
r 0.758752 1 0 ack 40 ------- 1 2.0 0.0 43 94
+ 0.758752 0 1 tcp 1040 ------- 1 0.0 2.0 63 114
- 0.758752 0 1 tcp 1040 ------- 1 0.0 2.0 63 114
r 0.759584 1 0 ack 40 ------- 1 2.0 0.0 44 95
+ 0.759584 0 1 tcp 1040 ------- 1 0.0 2.0 64 115
- 0.759584 0 1 tcp 1040 ------- 1 0.0 2.0 64 115
r 0.7596 0 1 tcp 1040 ------- 1 0.0 2.0 51 102
+ 0.7596 1 2 tcp 1040 ------- 1 0.0 2.0 51 102
- 0.7596 1 2 tcp 1040 ------- 1 0.0 2.0 51 102
r 0.760416 1 0 ack 40 ------- 1 2.0 0.0 45 96
+ 0.760416 0 1 tcp 1040 ------- 1 0.0 2.0 65 116
- 0.760416 0 1 tcp 1040 ------- 1 0.0 2.0 65 116
r 0.760432 0 1 tcp 1040 ------- 1 0.0 2.0 52 103
+ 0.760432 1 2 tcp 1040 ------- 1 0.0 2.0 52 103
- 0.760432 1 2 tcp 1040 ------- 1 0.0 2.0 52 103
r 0.761248 1 0 ack 40 ------- 1 2.0 0.0 46 97